
 Working directory              : /scratch/trushin/43775/
 Global scratch directory       : /scratch/trushin/43775/
 Wavefunction directory         : /home/trushin/wfu/
 Main file repository           : /scratch/trushin/43775/

 id        : chemieegortrushi

 Nodes     nprocs
 node062      1
 GA implementation: MPI file
 GA implementation (serial work in mppx): MPI file

 Using customized tuning parameters: mindgm=1; mindgv=20; mindgc=4; mindgr=1; noblas=0; minvec=7
 default implementation of scratch files=df  


 Variables initialized (1025), CPU time= 0.00 sec
 memory,8000,m
 gthresh,twoint=1d-20,energy=1d-10,orbital=1d-8
 gdirect
 basis={
 default,aug-cc-pwCVQZ
 set,RI
 default,aug-cc-pwCVQZ/mp2fit
 }
 
 symmetry,nosym
 angstrom
 geometry={
 Including file //home/stfaus/PhDProject/RPA_functional/GMTKN55/W4-17/GEOMETRIEN/W4-17/co/struc.xyz
 }
 
 charge=0
 
 spin=0
 
 df-ks,pbe,df_basis=aug-cc-pwCV5Z/mp2fit,maxit=200
 {cfit,basis_coul=aug-cc-pwCV5Z/mp2fit,basis_exch=aug-cc-pwCV5Z/mp2fit}
 
 user,rirpa,orb=2100.2,nquad=50,rpa=1,maxit=0,\
 thr_solve=1d-99,\
 dfit=1,direct=1,\
 thr_overlap_ri=1d-10,thr_fai_ri=1d-10,\
 write_sigma=1,verb=1,sigma=0
 Commands initialized (840), CPU time= 0.02 sec, 684 directives.
 Default parameters read. Elapsed time= 0.13 sec

 Checking input...
 Passed
1


                                         ***  PROGRAM SYSTEM MOLPRO  ***
                                       Copyright, TTI GmbH Stuttgart, 2015
                                    Version 2022.3 linked                         


 **********************************************************************************************************************************
 LABEL *                                                                                 
  (28 PROC) 64 bit serial version                                                        DATE: 30-Nov-22          TIME: 14:50:34  
 **********************************************************************************************************************************

 SHA1:             a01b30e7401ae6f7702ea60a3f31afbbc41491be
 **********************************************************************************************************************************

 Memory per process:      8000 MW
 Total memory per node:   8000 MW

 GA preallocation disabled
 GA check disabled

 Variable memory set to 8000.0 MW


 THRESHOLDS:

 ZERO    =  1.00D-12  ONEINT  =  1.00D-12  TWOINT  =  1.00D-20  PREFAC  =  1.00D-14  XXXXXX  =  1.00D-09  EORDER  =  1.00D-04
 ENERGY  =  1.00D-10  ETEST   =  0.00D+00  EDENS   =  0.00D+00  THRDEDEF=  1.00D-06  GRADIENT=  1.00D-05  STEP    =  1.00D-03
 ORBITAL =  1.00D-08  CIVEC   =  1.00D-05  COEFF   =  1.00D-04  PRINTCI =  5.00D-02  PUNCHCI =  9.90D+01  OPTGRAD =  3.00D-04
 OPTENERG=  1.00D-06  OPTSTEP =  3.00D-04  THRGRAD =  1.00D-10  COMPRESS=  1.00D-11  VARMIN  =  1.00D-07  VARMAX  =  1.00D-03
 THRDOUB =  0.00D+00  THRDIV  =  1.00D-05  THRRED  =  1.00D-07  THRPSP  =  1.00D+00  THRDC   =  1.00D-10  THRCS   =  1.00D-10
 THRNRM  =  1.00D-08  THREQ   =  0.00D+00  THRDE   =  1.00D+00  THRREF  =  1.00D-05  SPARFAC =  1.00D+00  THRDLP  =  1.00D-07
 THRDIA  =  1.00D-10  THRDLS  =  1.00D-07  THRGPS  =  0.00D+00  THRKEX  =  0.00D+00  THRDIS  =  2.00D-01  THRVAR  =  1.00D-10
 THRLOC  =  1.00D-06  THRGAP  =  1.00D-06  THRLOCT = -1.00D+00  THRGAPT = -1.00D+00  THRORB  =  1.00D-06  THRMLTP =  0.00D+00
 THRCPQCI=  1.00D-10  KEXTA   =  0.00D+00  THRCOARS=  0.00D+00  SYMTOL  =  1.00D-06  GRADTOL =  1.00D-06  THROVL  =  1.00D-08
 THRORTH =  1.00D-08  THRDLOVL= -1.00D+00  GRID    =  1.00D-06  GRIDMAX =  1.00D-03  DTMAX   =  0.00D+00  THROCCDE=  1.00D-01
 THROCCDE=  1.00D-01  THRPRINT=  2.50D-01

 SETTING BASIS          =    AUG-CC-PWCVQZ
 ZSYMEL=NOSYM
 ZUNIT=ANG
 

 Geometry recognized as XYZ

 SETTING CHARGE         =      0.0000000D+00                                  
 SETTING SPIN           =      0.0000000D+00                                  


 Recomputing integrals since basis changed


 Using spherical harmonics

 Library entry C      S aug-cc-pwCVQZ        selected for orbital group  1
 Library entry C      P aug-cc-pwCVQZ        selected for orbital group  1
 Library entry C      D aug-cc-pwCVQZ        selected for orbital group  1
 Library entry C      F aug-cc-pwCVQZ        selected for orbital group  1
 Library entry C      G aug-cc-pwCVQZ        selected for orbital group  1
 Library entry O      S aug-cc-pwCVQZ        selected for orbital group  2
 Library entry O      P aug-cc-pwCVQZ        selected for orbital group  2
 Library entry O      D aug-cc-pwCVQZ        selected for orbital group  2
 Library entry O      F aug-cc-pwCVQZ        selected for orbital group  2
 Library entry O      G aug-cc-pwCVQZ        selected for orbital group  2


 PROGRAM * SEWARD (Integral evaluation for generally contracted gaussian basis sets)     Author: Roland Lindh, 1990

 Geometry written to block  1 of record 700


 Point group  C1  



 ATOMIC COORDINATES

 NR  ATOM    CHARGE       X              Y              Z

   1  C       6.00    0.000000000    0.000000000   -1.221734396
   2  O       8.00    0.000000000    0.000000000    0.916301742

 Bond lengths in Bohr (Angstrom)

 1-2  2.138036137
     ( 1.131400000)

 NUCLEAR CHARGE:                   14
 NUMBER OF PRIMITIVE AOS:         304
 NUMBER OF SYMMETRY AOS:          244
 NUMBER OF CONTRACTIONS:          218   (  218A   )
 NUMBER OF INNER CORE ORBITALS:     0   (    0A   )
 NUMBER OF OUTER CORE ORBITALS:     2   (    2A   )
 NUMBER OF VALENCE ORBITALS:        8   (    8A   )


 NUCLEAR REPULSION ENERGY   22.45050921

 
 Basis set:    RI
 Basis size:   444
 Sphericals:   T

 **********************************************************************************************************************************

 EXTRA SYMMETRY OF AOS IN SYMMETRY 1:   1 1 1 1 1 1 1 1 1 2   3 1 2 3 1 2 3 1 2 3   1 2 3 1 2 3 1 2 3 1   2 3 1 1 4 2 5 3 1 4
                                        2 5 3 1 4 2 5 3 1 4   2 5 3 1 4 2 5 3 1 4   2 5 3 2 3 1 6 4 7 5   2 3 1 6 4 7 5 2 3 1
                                        6 4 7 5 2 3 1 6 4 7   5 1 4 2 8 3 5 9 6 7   1 4 2 8 3 5 9 6 7 1   1 1 1 1 1 1 1 1 2 3
                                        1 2 3 1 2 3 1 2 3 1   2 3 1 2 3 1 2 3 1 2   3 1 1 4 2 5 3 1 4 2   5 3 1 4 2 5 3 1 4 2
                                        5 3 1 4 2 5 3 1 4 2   5 3 2 3 1 6 4 7 5 2   3 1 6 4 7 5 2 3 1 6   4 7 5 2 3 1 6 4 7 5
                                        1 4 2 8 3 5 9 6 7 1   4 2 8 3 5 9 6 7

 Eigenvalues of metric

         1 0.247E-04 0.291E-04 0.918E-04 0.392E-03 0.504E-03 0.504E-03 0.560E-03 0.833E-03


 OPERATOR DM      FOR CENTER  0  COORDINATES:    0.000000    0.000000    0.000000


 **********************************************************************************************************************************
 DATASETS  * FILE   NREC   LENGTH (MB)   RECORD NAMES
              1      18       30.28       500      610      700      900      950      970     1000      129      960     1100   
                                          VAR    BASINP    GEOM    SYMINP    ZMAT    AOBASIS   BASIS     P2S    ABASIS      S 
                                         1400     1410     1200     1210     1080     1600     1650     1700   
                                           T        V       H0       H01     AOSYM     SMH    MOLCAS    OPER   

 PROGRAMS   *        TOTAL       INT
 CPU TIMES  *         8.20      8.02
 REAL TIME  *         3.65 SEC
 DISK USED  *        30.62 MB
 **********************************************************************************************************************************


 Program * Restricted Kohn-Sham

 Density functional group PBE=PBEX+PBEC
 Functional: PBEX(Automatically generated (new) PBEX)                          Gradient terms: 1
 Functional: PBEC(Automatically generated (new) PBEC)                          Gradient terms: 1
 
 Functional: PBEX                   Factor:  1.0000
 Functional: PBEC                   Factor:  1.0000
 

 Setting radial_scaling=1d0
 Radial grid threshold:                     5.0D-07
 Global grid threshold:                     1.0D-06
 Angular grid threshold:                    1.0D-07
 Fac_Neighbour:                                 4.0
 Size adjustment in partitioning scheme:   TREUTLER
 Skip grid points with weights lower than:  1.0D-20
 Grid orientation:                                T
 Pruning method:                                  4
 Pruning function:                                0

 Generated new metagrid on record  1800.2 with target accuracy 1.0D-06 and 10372 points in CPU time    5.5
 Computed new grid on record 1800.1 in CPU time    5.5
 Grid points discarded due to weight cutoff:      28

 DFT orbital screening threshold (tolorb):   1.0D-11

 Basis set AUG-CC-PWCV5Z/MP2FIT generated. Number of basis functions:   656 
 Reserved 17 MW to cache 100.0% of significant integrals. CPU: 5.4 sec

 Coulomb and exchange fitting
 Thresholds for fitting:       THRAO_COUL= 1.0D-17    THRAO_EXCH= 1.0D-15    THRMO= 1.0D-14    THRPROD= 1.0D-14    THRASM= 1.0D-14
                               THR2HLF=    1.0D-14
 
 Orbital guess generated from atomic densities. Full valence occupancy:   10
 Using density fitting in orbital guess
 

 Initial occupancy:   7

 NELEC=   14   SYM=1   MS2= 0   THRE=1.0D-11   THRD=1.0D-08   THRG=1.0D-08  HFMA2=F  DIIS_START=2   DIIS_MAX=10   DIIS_INCORE=F

 Level shifts:    0.00 (CLOSED)    0.00 (OPEN)    0.30 (GAP_MIN)

 ITER           ETOT              DE          GRAD        DDIFF     DIIS  NEXP   TIME(IT)  TIME(TOT)  DIAG
   1     -113.22038411    -113.22038411     0.00D+00     0.36D-01     0     0       4.06     13.94    start
   2     -113.15174936       0.06863475     0.46D-02     0.55D-02     1     0       3.51     17.45    diag
   3     -113.23499027      -0.08324091     0.94D-02     0.43D-02     2     0       3.52     20.97    diag
   4     -113.24091585      -0.00592558     0.22D-02     0.12D-02     3     0       3.50     24.47    diag
   5     -113.24098166      -0.00006581     0.23D-03     0.11D-03     4     0       3.52     27.99    diag
   6     -113.24098198      -0.00000032     0.16D-04     0.10D-04     5     0       3.55     31.54    diag
   7     -113.24098200      -0.00000002     0.41D-05     0.18D-05     6     0       3.65     35.19    diag
   8     -113.24098200      -0.00000000     0.64D-06     0.28D-06     7     0       3.66     38.85    fixocc
   9     -113.24098200      -0.00000000     0.34D-07     0.24D-07     8     0       3.54     42.39    diag
  10     -113.24098200       0.00000000     0.42D-08     0.23D-08     9     0       3.62     46.01    diag/orth
  11     -113.24098200      -0.00000000     0.56D-09     0.91D-09     0     0       3.50     49.51    diag

 Final occupancy:   7
 
 !RKS STATE 1.1 Energy               -113.240981997974
  RKS One-electron energy            -198.226790309508
  RKS Two-electron energy              76.293485966715
  RKS Kinetic energy                  112.880217271828
  RKS Nuclear energy                   22.450509212784
  RKS Virial quotient                  -1.003195996029
 Density functional                   -13.75818687     PBEX=-13.31009960 PBEC= -0.44808726
 
 !RKS STATE 1.1 Dipole moment           0.00000000     0.00000000     0.08382308
 Dipole moment /Debye                   0.00000000     0.00000000     0.21305702

 Orbital energies:

           1.1          2.1          3.1          4.1          5.1          6.1          7.1          8.1          9.1
    -18.858577   -10.001169    -1.075385    -0.519412    -0.434904    -0.434904    -0.332548    -0.074955    -0.074955


 HOMO      7.1    -0.332548 =      -9.0491eV
 LUMO      8.1    -0.074955 =      -2.0396eV
 LUMO-HOMO         0.257593 =       7.0095eV

 Orbitals saved in record  2100.2


 **********************************************************************************************************************************
 DATASETS  * FILE   NREC   LENGTH (MB)   RECORD NAMES
              1      19       30.60       500      610      700      900      950      970     1000      129      960     1100   
                                          VAR    BASINP    GEOM    SYMINP    ZMAT    AOBASIS   BASIS     P2S    ABASIS      S 
                                         1400     1410     1200     1210     1080     1600     1650     1700     1800   
                                           T        V       H0       H01     AOSYM     SMH    MOLCAS    OPER     GRID   

              2       5        1.13       700     1000      520     1800     2100   
                                         GEOM     BASIS   MCVARS    GRID      RKS  

              4       1        1.68      4001   
                                        JINV/CD    

 PROGRAMS   *        TOTAL     DF-KS       INT
 CPU TIMES  *        63.61     55.38      8.02
 REAL TIME  *         5.81 SEC
 DISK USED  *        36.76 MB
 **********************************************************************************************************************************

 PROGRAM * RIRPA      (restricted resolution of identity random-phase approximat
 ion)
 Authors: A. Hesselmann, P. Bleiziffer, D. Schmidtel, J. Erhard, A. Thierbach
 
Read Orbital Records from 2100.2
Read Reference density from    0.0
Write Orbital Records to 2101.2
Write VxNL-VxL Records to    0.0
 Maximum number of iterations:                      0
 Minimum number of iterations:                      3
 Maximum size of DIIS matrix:                     10
Threshold for energy convergence:     1.000E-08
Threshold for Inversion convergence:     1.000E-08
Threshold for OEP calculation:     1.000E-06
 Threshold for RPA calculation:   1.000000000000000E-006
 Threshold for response matrix inversion in RPA:  1.000000000000000E-004
 Threshold for logarithmic function in RPA:  1.000000000000000E-006
 Another threshold for logarithmic function in RPA:  1.000000000000000E-010
 Threshold for inverse eigenvalue difference in RPA:  1.000000000000000E-008
 Threshold for eigenproblem solver:   1.000000000000000E-099
 Solver for eigenproblems: TIKH2
 Use density fitting.
 use direct RPA for correlation
 Quadrature points:                    50
 Use rational function in Gauss-Legendre quadrature.
 Scaling factor:    2.50000000000000     
 Molecular orbitals read from record     2100.2  Type=RKS/CANONICAL  
 Orbital energies read from record       2100.2  Type=RKS/CANONICAL  
 Density matrix read from record         2100.2  Type=RKS/CHARGE  
 Basis set AWCV5Z/MP2FIT generated.      Number of basis functions:   656 
Number of nonsingular components:  443
Sigma-values will be stored into sigma.dat

    ifreq    omega             dE/domega       Ecorr
     1      0.001418         -4.88563108     -0.00283029
     2      0.007482         -4.88357850     -0.00943719
     3      0.018442         -4.87281452     -0.01985587
     4      0.034386         -4.84130717     -0.03409036
     5      0.055439         -4.77266700     -0.05206226
     6      0.081769         -4.64900965     -0.07354591
     7      0.113588         -4.45625692     -0.09811876
     8      0.151158         -4.19040881     -0.12515948
     9      0.194793         -3.86116291     -0.15391096
    10      0.244867         -3.48990904     -0.18358957
    11      0.301818         -3.10301910     -0.21349499
    12      0.366160         -2.72445299     -0.24308031
    13      0.438493         -2.37113975     -0.27196913
    14      0.519512         -2.05201333     -0.29993229
    15      0.610027         -1.76958302     -0.32684669
    16      0.710977         -1.52237420     -0.35265528
    17      0.823456         -1.30705862     -0.37733755
    18      0.948736         -1.11983498     -0.40089178
    19      1.088308         -0.95712139     -0.42332627
    20      1.243915         -0.81579788     -0.44465616
    21      1.417610         -0.69322009     -0.46490296
    22      1.611818         -0.58714572     -0.48409513
    23      1.829414         -0.49564568     -0.50226883
    24      2.073834         -0.41702794     -0.51946848
    25      2.349198         -0.34978166     -0.53574697
    26      2.660482         -0.29254044     -0.55116553
    27      3.013741         -0.24406087     -0.56579352
    28      3.416394         -0.20321115     -0.57970827
    29      3.877610         -0.16896439     -0.59299510
    30      4.408827         -0.14039216     -0.60574757
    31      5.024457         -0.11665605     -0.61806760
    32      5.742859         -0.09699794     -0.63006502
    33      6.587709         -0.08073172     -0.64185594
    34      7.589965         -0.06723958     -0.65355941
    35      8.790716         -0.05597422     -0.66529215
    36     10.245443         -0.04646548     -0.67716147
    37     12.030510         -0.03832730     -0.68925637
    38     14.253364         -0.03126075     -0.70163655
    39     17.069035         -0.02505133     -0.71431790
    40     20.707869         -0.01956243     -0.72725328
    41     25.524089         -0.01472800     -0.74030878
    42     32.085267         -0.01054327     -0.75324028
    43     41.347333         -0.00704656     -0.76567838
    44     55.023205         -0.00428765     -0.77713130
    45     76.434846         -0.00228821     -0.78701560
    46    112.736462         -0.00100660     -0.79472358
    47    181.759690         -0.00032456     -0.79976776
    48    338.892100         -0.00006001     -0.80212561
    49    835.297317         -0.00000344     -0.80264567
    50   4408.244086         -0.00000001     -0.80265750

 reference energy =       -112.767255091502

 correlation energy =         -0.802657497166

 Total energy =       -113.569912588668


 **********************************************************************************************************************************
 DATASETS  * FILE   NREC   LENGTH (MB)   RECORD NAMES
              1      19       30.60       500      610      700      900      950      970     1000      129      960     1100   
                                          VAR    BASINP    GEOM    SYMINP    ZMAT    AOBASIS   BASIS     P2S    ABASIS      S 
                                         1400     1410     1200     1210     1080     1600     1650     1700     1800   
                                           T        V       H0       H01     AOSYM     SMH    MOLCAS    OPER     GRID   

              2       5        1.31       700     1000      520     1800     2100   
                                         GEOM     BASIS   MCVARS    GRID      RKS  

              4       1        3.31      4000   
                                         JMAT   

 PROGRAMS   *        TOTAL      USER     DF-KS       INT
 CPU TIMES  *       163.28     99.56     55.38      8.02
 REAL TIME  *        10.42 SEC
 DISK USED  *        43.01 MB
 **********************************************************************************************************************************

 USER/aug-cc-pWCVQZ energy=   -113.569912588668

            USER           DF-KS
   -113.56991259   -113.24098200
 **********************************************************************************************************************************
 Molpro calculation terminated
