
 Working directory              : /scratch/trushin/44013/
 Global scratch directory       : /scratch/trushin/44013/
 Wavefunction directory         : /home/trushin/wfu/
 Main file repository           : /scratch/trushin/44013/

 id        : chemieegortrushi

 Nodes     nprocs
 node061      1
 GA implementation: MPI file
 GA implementation (serial work in mppx): MPI file

 Using customized tuning parameters: mindgm=1; mindgv=20; mindgc=4; mindgr=1; noblas=0; minvec=7
 default implementation of scratch files=df  


 Variables initialized (1025), CPU time= 0.01 sec
 memory,8000,m
 gthresh,twoint=1d-20,energy=1d-10,orbital=1d-8
 gdirect
 basis={
 default,aug-cc-pwCVQZ
 set,RI
 default,aug-cc-pwCVQZ/mp2fit
 }
 
 symmetry,nosym
 angstrom
 geometry={
 Including file //home/stfaus/PhDProject/RPA_functional/GMTKN55/W4-17/GEOMETRIEN/W4-17/co/struc.xyz
 }
 
 charge=0
 
 spin=0
 
 df-ks,pbe0,df_basis=aug-cc-pwCV5Z/mp2fit,maxit=200
 {cfit,basis_coul=aug-cc-pwCV5Z/mp2fit,basis_exch=aug-cc-pwCV5Z/mp2fit}
 
 user,rirpa,orb=2100.2,nquad=50,rpa=1,maxit=0,\
 thr_solve=1d-99,\
 dfit=1,direct=1,\
 thr_overlap_ri=1d-10,thr_fai_ri=1d-10,\
 write_sigma=1,verb=1,sigma=0
 Commands initialized (840), CPU time= 0.01 sec, 684 directives.
 Default parameters read. Elapsed time= 0.12 sec

 Checking input...
 Passed
1


                                         ***  PROGRAM SYSTEM MOLPRO  ***
                                       Copyright, TTI GmbH Stuttgart, 2015
                                    Version 2022.3 linked                         


 **********************************************************************************************************************************
 LABEL *                                                                                 
  (28 PROC) 64 bit serial version                                                        DATE: 01-Dec-22          TIME: 17:55:06  
 **********************************************************************************************************************************

 SHA1:             a01b30e7401ae6f7702ea60a3f31afbbc41491be
 **********************************************************************************************************************************

 Memory per process:      8000 MW
 Total memory per node:   8000 MW

 GA preallocation disabled
 GA check disabled

 Variable memory set to 8000.0 MW


 THRESHOLDS:

 ZERO    =  1.00D-12  ONEINT  =  1.00D-12  TWOINT  =  1.00D-20  PREFAC  =  1.00D-14  XXXXXX  =  1.00D-09  EORDER  =  1.00D-04
 ENERGY  =  1.00D-10  ETEST   =  0.00D+00  EDENS   =  0.00D+00  THRDEDEF=  1.00D-06  GRADIENT=  1.00D-05  STEP    =  1.00D-03
 ORBITAL =  1.00D-08  CIVEC   =  1.00D-05  COEFF   =  1.00D-04  PRINTCI =  5.00D-02  PUNCHCI =  9.90D+01  OPTGRAD =  3.00D-04
 OPTENERG=  1.00D-06  OPTSTEP =  3.00D-04  THRGRAD =  1.00D-10  COMPRESS=  1.00D-11  VARMIN  =  1.00D-07  VARMAX  =  1.00D-03
 THRDOUB =  0.00D+00  THRDIV  =  1.00D-05  THRRED  =  1.00D-07  THRPSP  =  1.00D+00  THRDC   =  1.00D-10  THRCS   =  1.00D-10
 THRNRM  =  1.00D-08  THREQ   =  0.00D+00  THRDE   =  1.00D+00  THRREF  =  1.00D-05  SPARFAC =  1.00D+00  THRDLP  =  1.00D-07
 THRDIA  =  1.00D-10  THRDLS  =  1.00D-07  THRGPS  =  0.00D+00  THRKEX  =  0.00D+00  THRDIS  =  2.00D-01  THRVAR  =  1.00D-10
 THRLOC  =  1.00D-06  THRGAP  =  1.00D-06  THRLOCT = -1.00D+00  THRGAPT = -1.00D+00  THRORB  =  1.00D-06  THRMLTP =  0.00D+00
 THRCPQCI=  1.00D-10  KEXTA   =  0.00D+00  THRCOARS=  0.00D+00  SYMTOL  =  1.00D-06  GRADTOL =  1.00D-06  THROVL  =  1.00D-08
 THRORTH =  1.00D-08  THRDLOVL= -1.00D+00  GRID    =  1.00D-06  GRIDMAX =  1.00D-03  DTMAX   =  0.00D+00  THROCCDE=  1.00D-01
 THROCCDE=  1.00D-01  THRPRINT=  2.50D-01

 SETTING BASIS          =    AUG-CC-PWCVQZ
 ZSYMEL=NOSYM
 ZUNIT=ANG
 

 Geometry recognized as XYZ

 SETTING CHARGE         =      0.0000000D+00                                  
 SETTING SPIN           =      0.0000000D+00                                  


 Recomputing integrals since basis changed


 Using spherical harmonics

 Library entry C      S aug-cc-pwCVQZ        selected for orbital group  1
 Library entry C      P aug-cc-pwCVQZ        selected for orbital group  1
 Library entry C      D aug-cc-pwCVQZ        selected for orbital group  1
 Library entry C      F aug-cc-pwCVQZ        selected for orbital group  1
 Library entry C      G aug-cc-pwCVQZ        selected for orbital group  1
 Library entry O      S aug-cc-pwCVQZ        selected for orbital group  2
 Library entry O      P aug-cc-pwCVQZ        selected for orbital group  2
 Library entry O      D aug-cc-pwCVQZ        selected for orbital group  2
 Library entry O      F aug-cc-pwCVQZ        selected for orbital group  2
 Library entry O      G aug-cc-pwCVQZ        selected for orbital group  2


 PROGRAM * SEWARD (Integral evaluation for generally contracted gaussian basis sets)     Author: Roland Lindh, 1990

 Geometry written to block  1 of record 700


 Point group  C1  



 ATOMIC COORDINATES

 NR  ATOM    CHARGE       X              Y              Z

   1  C       6.00    0.000000000    0.000000000   -1.221734396
   2  O       8.00    0.000000000    0.000000000    0.916301742

 Bond lengths in Bohr (Angstrom)

 1-2  2.138036137
     ( 1.131400000)

 NUCLEAR CHARGE:                   14
 NUMBER OF PRIMITIVE AOS:         304
 NUMBER OF SYMMETRY AOS:          244
 NUMBER OF CONTRACTIONS:          218   (  218A   )
 NUMBER OF INNER CORE ORBITALS:     0   (    0A   )
 NUMBER OF OUTER CORE ORBITALS:     2   (    2A   )
 NUMBER OF VALENCE ORBITALS:        8   (    8A   )


 NUCLEAR REPULSION ENERGY   22.45050921

 
 Basis set:    RI
 Basis size:   444
 Sphericals:   T

 **********************************************************************************************************************************

 EXTRA SYMMETRY OF AOS IN SYMMETRY 1:   1 1 1 1 1 1 1 1 1 2   3 1 2 3 1 2 3 1 2 3   1 2 3 1 2 3 1 2 3 1   2 3 1 1 4 2 5 3 1 4
                                        2 5 3 1 4 2 5 3 1 4   2 5 3 1 4 2 5 3 1 4   2 5 3 2 3 1 6 4 7 5   2 3 1 6 4 7 5 2 3 1
                                        6 4 7 5 2 3 1 6 4 7   5 1 4 2 8 3 5 9 6 7   1 4 2 8 3 5 9 6 7 1   1 1 1 1 1 1 1 1 2 3
                                        1 2 3 1 2 3 1 2 3 1   2 3 1 2 3 1 2 3 1 2   3 1 1 4 2 5 3 1 4 2   5 3 1 4 2 5 3 1 4 2
                                        5 3 1 4 2 5 3 1 4 2   5 3 2 3 1 6 4 7 5 2   3 1 6 4 7 5 2 3 1 6   4 7 5 2 3 1 6 4 7 5
                                        1 4 2 8 3 5 9 6 7 1   4 2 8 3 5 9 6 7

 Eigenvalues of metric

         1 0.247E-04 0.291E-04 0.918E-04 0.392E-03 0.504E-03 0.504E-03 0.560E-03 0.833E-03


 OPERATOR DM      FOR CENTER  0  COORDINATES:    0.000000    0.000000    0.000000


 **********************************************************************************************************************************
 DATASETS  * FILE   NREC   LENGTH (MB)   RECORD NAMES
              1      18       30.28       500      610      700      900      950      970     1000      129      960     1100   
                                          VAR    BASINP    GEOM    SYMINP    ZMAT    AOBASIS   BASIS     P2S    ABASIS      S 
                                         1400     1410     1200     1210     1080     1600     1650     1700   
                                           T        V       H0       H01     AOSYM     SMH    MOLCAS    OPER   

 PROGRAMS   *        TOTAL       INT
 CPU TIMES  *         7.44      7.27
 REAL TIME  *         3.56 SEC
 DISK USED  *        30.62 MB
 **********************************************************************************************************************************


 Program * Restricted Kohn-Sham

 Density functional group PBE0=PBEX+PBEC
 Functional: PBEX(Automatically generated (new) PBEX)                          Gradient terms: 1
 Functional: PBEC(Automatically generated (new) PBEC)                          Gradient terms: 1
 
 Exact exchange will be calculated, factor:  0.2500
 Functional: PBEX                   Factor:  0.7500
 Functional: PBEC                   Factor:  1.0000
 

 Setting radial_scaling=1d0
 Radial grid threshold:                     5.0D-07
 Global grid threshold:                     1.0D-06
 Angular grid threshold:                    1.0D-07
 Fac_Neighbour:                                 4.0
 Size adjustment in partitioning scheme:   TREUTLER
 Skip grid points with weights lower than:  1.0D-20
 Grid orientation:                                T
 Pruning method:                                  4
 Pruning function:                                0

 Generated new metagrid on record  1800.2 with target accuracy 1.0D-06 and 10372 points in CPU time    5.5
 Computed new grid on record 1800.1 in CPU time    5.5
 Grid points discarded due to weight cutoff:      28

 DFT orbital screening threshold (tolorb):   1.0D-11

 Basis set AWCV5Z/MP2FIT generated.      Number of basis functions:   656 
 Coulomb and exchange fitting
 Thresholds for fitting:       THRAO_COUL= 1.0D-17    THRAO_EXCH= 1.0D-15    THRMO= 1.0D-14    THRPROD= 1.0D-14    THRASM= 1.0D-14
                               THR2HLF=    1.0D-14

 Basis set AWCV5Z-MP2FIT loaded. Number of basis functions: 656
 
 Orbital guess generated from atomic densities. Full valence occupancy:   10
 Using density fitting in orbital guess
 

 Initial occupancy:   7

 NELEC=   14   SYM=1   MS2= 0   THRE=1.0D-11   THRD=1.0D-08   THRG=1.0D-08  HFMA2=F  DIIS_START=2   DIIS_MAX=10   DIIS_INCORE=F

 Level shifts:    0.00 (CLOSED)    0.00 (OPEN)    0.30 (GAP_MIN)

 ITER           ETOT              DE          GRAD        DDIFF     DIIS  NEXP   TIME(IT)  TIME(TOT)  DIAG
   1     -113.22238299    -113.22238299     0.00D+00     0.35D-01     0     0      20.67     42.95    start
   2     -113.18032714       0.04205585     0.39D-02     0.44D-02     1     0      20.76     63.71    diag
   3     -113.23533200      -0.05500486     0.74D-02     0.32D-02     2     0      20.90     84.61    diag
   4     -113.23620364      -0.00087164     0.83D-03     0.47D-03     3     0      20.94    105.55    diag
   5     -113.23621647      -0.00001283     0.10D-03     0.58D-04     4     0      20.78    126.33    diag
   6     -113.23621668      -0.00000021     0.14D-04     0.55D-05     5     0      20.90    147.23    diag
   7     -113.23621668      -0.00000000     0.92D-06     0.61D-06     6     0      20.96    168.19    diag
   8     -113.23621668      -0.00000000     0.12D-06     0.66D-07     7     0      20.97    189.16    fixocc
   9     -113.23621668      -0.00000000     0.82D-08     0.77D-08     8     0      20.85    210.01    diag
  10     -113.23621668       0.00000000     0.87D-09     0.12D-08     0     0      20.90    230.91    diag/orth

 Final occupancy:   7
 
 !RKS STATE 1.1 Energy               -113.236216682045
  RKS One-electron energy            -198.233586988098
  RKS Two-electron energy              72.980919863512
  RKS Kinetic energy                  112.809412481391
  RKS Nuclear energy                   22.450509212784
  RKS Virial quotient                  -1.003783409480
 Density functional                   -10.43405877     PBEX=-13.31295808 PBEC= -0.44934021
 
 !RKS STATE 1.1 Dipole moment           0.00000000    -0.00000000     0.03526083
 Dipole moment /Debye                   0.00000000    -0.00000000     0.08962409

 Orbital energies:

           1.1          2.1          3.1          4.1          5.1          6.1          7.1          8.1          9.1
    -19.315431   -10.345828    -1.195969    -0.599739    -0.494930    -0.494930    -0.395334    -0.029836    -0.029836


 HOMO      7.1    -0.395334 =     -10.7576eV
 LUMO      8.1    -0.029836 =      -0.8119eV
 LUMO-HOMO         0.365497 =       9.9457eV

 Orbitals saved in record  2100.2


 **********************************************************************************************************************************
 DATASETS  * FILE   NREC   LENGTH (MB)   RECORD NAMES
              1      19       30.60       500      610      700      900      950      970     1000      129      960     1100   
                                          VAR    BASINP    GEOM    SYMINP    ZMAT    AOBASIS   BASIS     P2S    ABASIS      S 
                                         1400     1410     1200     1210     1080     1600     1650     1700     1800   
                                           T        V       H0       H01     AOSYM     SMH    MOLCAS    OPER     GRID   

              2       5        1.13       700     1000      520     1800     2100   
                                         GEOM     BASIS   MCVARS    GRID      RKS  

 PROGRAMS   *        TOTAL     DF-KS       INT
 CPU TIMES  *       244.24    236.77      7.27
 REAL TIME  *        12.32 SEC
 DISK USED  *        42.74 MB
 **********************************************************************************************************************************

 PROGRAM * RIRPA      (restricted resolution of identity random-phase approximat
 ion)
 Authors: A. Hesselmann, P. Bleiziffer, D. Schmidtel, J. Erhard, A. Thierbach
 
Read Orbital Records from 2100.2
Read Reference density from    0.0
Write Orbital Records to 2101.2
Write VxNL-VxL Records to    0.0
 Maximum number of iterations:                      0
 Minimum number of iterations:                      3
 Maximum size of DIIS matrix:                     10
Threshold for energy convergence:     1.000E-08
Threshold for Inversion convergence:     1.000E-08
Threshold for OEP calculation:     1.000E-06
 Threshold for RPA calculation:   1.000000000000000E-006
 Threshold for response matrix inversion in RPA:  1.000000000000000E-004
 Threshold for logarithmic function in RPA:  1.000000000000000E-006
 Another threshold for logarithmic function in RPA:  1.000000000000000E-010
 Threshold for inverse eigenvalue difference in RPA:  1.000000000000000E-008
 Threshold for eigenproblem solver:   1.000000000000000E-099
 Solver for eigenproblems: TIKH2
 Use density fitting.
 use direct RPA for correlation
 Quadrature points:                    50
 Use rational function in Gauss-Legendre quadrature.
 Scaling factor:    2.50000000000000     
 Molecular orbitals read from record     2100.2  Type=RKS/CANONICAL  
 Orbital energies read from record       2100.2  Type=RKS/CANONICAL  
 Density matrix read from record         2100.2  Type=RKS/CHARGE  
Number of nonsingular components:  443
Sigma-values will be stored into sigma.dat

    ifreq    omega             dE/domega       Ecorr
     1      0.001418         -3.54940529     -0.00205620
     2      0.007482         -3.54862361     -0.00685707
     3      0.018442         -3.54451659     -0.01443568
     4      0.034386         -3.53241918     -0.02482176
     5      0.055439         -3.50567048     -0.03802267
     6      0.081769         -3.45609614     -0.05399372
     7      0.113588         -3.37516566     -0.07260518
     8      0.151158         -3.25592822     -0.09361569
     9      0.194793         -3.09533775     -0.11666459
    10      0.244867         -2.89599405     -0.14129247
    11      0.301818         -2.66623295     -0.16698836
    12      0.366160         -2.41826649     -0.19324874
    13      0.438493         -2.16521194     -0.21962864
    14      0.519512         -1.91838222     -0.24577078
    15      0.610027         -1.68579105     -0.27141075
    16      0.710977         -1.47198527     -0.29636511
    17      0.823456         -1.27872952     -0.32051242
    18      0.948736         -1.10596008     -0.34377480
    19      1.088308         -0.95261927     -0.36610376
    20      1.243915         -0.81722679     -0.38747101
    21      1.417610         -0.69820317     -0.40786336
    22      1.611818         -0.59401962     -0.42728021
    23      1.829414         -0.50324855     -0.44573268
    24      2.073834         -0.42456693     -0.46324327
    25      2.349198         -0.35674344     -0.47984576
    26      2.660482         -0.29862480     -0.49558499
    27      3.013741         -0.24912740     -0.51051665
    28      3.416394         -0.20723491     -0.52470692
    29      3.877610         -0.17199938     -0.53823242
    30      4.408827         -0.14254238     -0.55118021
    31      5.024457         -0.11805389     -0.56364786
    32      5.742859         -0.09778852     -0.57574306
    33      6.587709         -0.08106158     -0.58758216
    34      7.589965         -0.06724777     -0.59928706
    35      8.790716         -0.05578491     -0.61098012
    36     10.245443         -0.04618198     -0.62277701
    37     12.030510         -0.03802817     -0.63477752
    38     14.253364         -0.03099869     -0.64705391
    39     17.069035         -0.02485476     -0.65963576
    40     20.707869         -0.01943913     -0.67248961
    41     25.524089         -0.01466997     -0.68549367
    42     32.085267         -0.01053244     -0.69841188
    43     41.347333         -0.00706141     -0.71087619
    44     55.023205         -0.00430961     -0.72238778
    45     76.434846         -0.00230584     -0.73234824
    46    112.736462         -0.00101634     -0.74013073
    47    181.759690         -0.00032812     -0.74523024
    48    338.892100         -0.00006070     -0.74761522
    49    835.297317         -0.00000348     -0.74814113
    50   4408.244086         -0.00000001     -0.74815309

 reference energy =       -112.777440046350

 correlation energy =         -0.748153093400

 Total energy =       -113.525593139750


 **********************************************************************************************************************************
 DATASETS  * FILE   NREC   LENGTH (MB)   RECORD NAMES
              1      19       30.60       500      610      700      900      950      970     1000      129      960     1100   
                                          VAR    BASINP    GEOM    SYMINP    ZMAT    AOBASIS   BASIS     P2S    ABASIS      S 
                                         1400     1410     1200     1210     1080     1600     1650     1700     1800   
                                           T        V       H0       H01     AOSYM     SMH    MOLCAS    OPER     GRID   

              2       5        1.31       700     1000      520     1800     2100   
                                         GEOM     BASIS   MCVARS    GRID      RKS  

              4       1        3.31      4000   
                                         JMAT   

 PROGRAMS   *        TOTAL      USER     DF-KS       INT
 CPU TIMES  *       345.51    101.17    236.77      7.27
 REAL TIME  *        16.28 SEC
 DISK USED  *        43.00 MB
 **********************************************************************************************************************************

 USER/aug-cc-pWCVQZ energy=   -113.525593139750

            USER           DF-KS
   -113.52559314   -113.23621668
 **********************************************************************************************************************************
 Molpro calculation terminated
