
 Working directory              : /scratch/trushin/44015/
 Global scratch directory       : /scratch/trushin/44015/
 Wavefunction directory         : /home/trushin/wfu/
 Main file repository           : /scratch/trushin/44015/

 id        : chemieegortrushi

 Nodes     nprocs
 node061      1
 GA implementation: MPI file
 GA implementation (serial work in mppx): MPI file

 Using customized tuning parameters: mindgm=1; mindgv=20; mindgc=4; mindgr=1; noblas=0; minvec=7
 default implementation of scratch files=df  


 Variables initialized (1025), CPU time= 0.01 sec
 memory,8000,m
 gthresh,twoint=1d-20,energy=1d-10,orbital=1d-8
 gdirect
 basis={
 default,aug-cc-pwCVQZ
 set,RI
 default,aug-cc-pwCVQZ/mp2fit
 }
 
 symmetry,nosym
 angstrom
 geometry={
 Including file //home/stfaus/PhDProject/RPA_functional/GMTKN55/W4-17/GEOMETRIEN/W4-17/nh/struc.xyz
 }
 
 charge=0
 
 spin=2
 
 df-uks,pbe0,df_basis=aug-cc-pwCV5Z/mp2fit,maxit=200
 {cfit,basis_coul=aug-cc-pwCV5Z/mp2fit,basis_exch=aug-cc-pwCV5Z/mp2fit}
 
 user,urirpa,orb=2200.2,nquad=50,rpa=1,maxit=0,\
 thr_solve=1d-99,\
 dfit=1,direct=1,\
 thr_overlap_ri=1d-10,thr_fai_ri=1d-10,\
 write_sigma=1,verb=1,sigma=0
 Commands initialized (840), CPU time= 0.02 sec, 684 directives.
 Default parameters read. Elapsed time= 0.14 sec

 Checking input...
 Passed
1


                                         ***  PROGRAM SYSTEM MOLPRO  ***
                                       Copyright, TTI GmbH Stuttgart, 2015
                                    Version 2022.3 linked                         


 **********************************************************************************************************************************
 LABEL *                                                                                 
  (28 PROC) 64 bit serial version                                                        DATE: 01-Dec-22          TIME: 17:55:29  
 **********************************************************************************************************************************

 SHA1:             a01b30e7401ae6f7702ea60a3f31afbbc41491be
 **********************************************************************************************************************************

 Memory per process:      8000 MW
 Total memory per node:   8000 MW

 GA preallocation disabled
 GA check disabled

 Variable memory set to 8000.0 MW


 THRESHOLDS:

 ZERO    =  1.00D-12  ONEINT  =  1.00D-12  TWOINT  =  1.00D-20  PREFAC  =  1.00D-14  XXXXXX  =  1.00D-09  EORDER  =  1.00D-04
 ENERGY  =  1.00D-10  ETEST   =  0.00D+00  EDENS   =  0.00D+00  THRDEDEF=  1.00D-06  GRADIENT=  1.00D-05  STEP    =  1.00D-03
 ORBITAL =  1.00D-08  CIVEC   =  1.00D-05  COEFF   =  1.00D-04  PRINTCI =  5.00D-02  PUNCHCI =  9.90D+01  OPTGRAD =  3.00D-04
 OPTENERG=  1.00D-06  OPTSTEP =  3.00D-04  THRGRAD =  1.00D-10  COMPRESS=  1.00D-11  VARMIN  =  1.00D-07  VARMAX  =  1.00D-03
 THRDOUB =  0.00D+00  THRDIV  =  1.00D-05  THRRED  =  1.00D-07  THRPSP  =  1.00D+00  THRDC   =  1.00D-10  THRCS   =  1.00D-10
 THRNRM  =  1.00D-08  THREQ   =  0.00D+00  THRDE   =  1.00D+00  THRREF  =  1.00D-05  SPARFAC =  1.00D+00  THRDLP  =  1.00D-07
 THRDIA  =  1.00D-10  THRDLS  =  1.00D-07  THRGPS  =  0.00D+00  THRKEX  =  0.00D+00  THRDIS  =  2.00D-01  THRVAR  =  1.00D-10
 THRLOC  =  1.00D-06  THRGAP  =  1.00D-06  THRLOCT = -1.00D+00  THRGAPT = -1.00D+00  THRORB  =  1.00D-06  THRMLTP =  0.00D+00
 THRCPQCI=  1.00D-10  KEXTA   =  0.00D+00  THRCOARS=  0.00D+00  SYMTOL  =  1.00D-06  GRADTOL =  1.00D-06  THROVL  =  1.00D-08
 THRORTH =  1.00D-08  THRDLOVL= -1.00D+00  GRID    =  1.00D-06  GRIDMAX =  1.00D-03  DTMAX   =  0.00D+00  THROCCDE=  1.00D-01
 THROCCDE=  1.00D-01  THRPRINT=  2.50D-01

 SETTING BASIS          =    AUG-CC-PWCVQZ
 ZSYMEL=NOSYM
 ZUNIT=ANG
 

 Geometry recognized as XYZ

 SETTING CHARGE         =      0.0000000D+00                                  
 SETTING SPIN           =         2.00000000                                  


 Recomputing integrals since basis changed


 Using spherical harmonics

 Library entry N      S aug-cc-pwCVQZ        selected for orbital group  1
 Library entry N      P aug-cc-pwCVQZ        selected for orbital group  1
 Library entry N      D aug-cc-pwCVQZ        selected for orbital group  1
 Library entry N      F aug-cc-pwCVQZ        selected for orbital group  1
 Library entry N      G aug-cc-pwCVQZ        selected for orbital group  1
 Library entry H      S aug-cc-pVQZ          selected for orbital group  2
 Library entry H      P aug-cc-pVQZ          selected for orbital group  2
 Library entry H      D aug-cc-pVQZ          selected for orbital group  2
 Library entry H      F aug-cc-pVQZ          selected for orbital group  2


 PROGRAM * SEWARD (Integral evaluation for generally contracted gaussian basis sets)     Author: Roland Lindh, 1990

 Geometry written to block  1 of record 700


 Point group  C1  



 ATOMIC COORDINATES

 NR  ATOM    CHARGE       X              Y              Z

   1  N       7.00    0.000000000    0.000000000    0.245001102
   2  H       1.00    0.000000000    0.000000000   -1.715007716

 Bond lengths in Bohr (Angstrom)

 1-2  1.960008819
     ( 1.037192000)

 NUCLEAR CHARGE:                    8
 NUMBER OF PRIMITIVE AOS:         209
 NUMBER OF SYMMETRY AOS:          170
 NUMBER OF CONTRACTIONS:          155   (  155A   )
 NUMBER OF INNER CORE ORBITALS:     0   (    0A   )
 NUMBER OF OUTER CORE ORBITALS:     1   (    1A   )
 NUMBER OF VALENCE ORBITALS:        5   (    5A   )


 NUCLEAR REPULSION ENERGY    3.57141250

 
 Basis set:    RI
 Basis size:   302
 Sphericals:   T

 **********************************************************************************************************************************

 EXTRA SYMMETRY OF AOS IN SYMMETRY 1:   1 1 1 1 1 1 1 1 1 2   3 1 2 3 1 2 3 1 2 3   1 2 3 1 2 3 1 2 3 1   2 3 1 1 4 2 5 3 1 4
                                        2 5 3 1 4 2 5 3 1 4   2 5 3 1 4 2 5 3 1 4   2 5 3 2 3 1 6 4 7 5   2 3 1 6 4 7 5 2 3 1
                                        6 4 7 5 2 3 1 6 4 7   5 1 4 2 8 3 5 9 6 7   1 4 2 8 3 5 9 6 7 1   1 1 1 1 2 3 1 2 3 1
                                        2 3 1 2 3 1 1 4 2 5   3 1 4 2 5 3 1 4 2 5   3 2 3 1 6 4 7 5 2 3   1 6 4 7 5

 Eigenvalues of metric

         1 0.300E-04 0.121E-03 0.510E-03 0.856E-03 0.107E-02 0.112E-02 0.112E-02 0.138E-02


 OPERATOR DM      FOR CENTER  0  COORDINATES:    0.000000    0.000000    0.000000


 **********************************************************************************************************************************
 DATASETS  * FILE   NREC   LENGTH (MB)   RECORD NAMES
              1      18       29.45       500      610      700      900      950      970     1000      129      960     1100   
                                          VAR    BASINP    GEOM    SYMINP    ZMAT    AOBASIS   BASIS     P2S    ABASIS      S 
                                         1400     1410     1200     1210     1080     1600     1650     1700   
                                           T        V       H0       H01     AOSYM     SMH    MOLCAS    OPER   

 PROGRAMS   *        TOTAL       INT
 CPU TIMES  *         6.77      6.56
 REAL TIME  *         4.01 SEC
 DISK USED  *        29.76 MB
 **********************************************************************************************************************************


 Program * Unrestricted Kohn-Sham

 Density functional group PBE0=PBEX+PBEC
 Functional: PBEX(Automatically generated (new) PBEX)                          Gradient terms: 1
 Functional: PBEC(Automatically generated (new) PBEC)                          Gradient terms: 1
 
 Exact exchange will be calculated, factor:  0.2500
 Functional: PBEX                   Factor:  0.7500
 Functional: PBEC                   Factor:  1.0000
 

 Setting radial_scaling=1d0
 Radial grid threshold:                     5.0D-07
 Global grid threshold:                     1.0D-06
 Angular grid threshold:                    1.0D-07
 Fac_Neighbour:                                 4.0
 Size adjustment in partitioning scheme:   TREUTLER
 Skip grid points with weights lower than:  1.0D-20
 Grid orientation:                                T
 Pruning method:                                  4
 Pruning function:                                0

 Generated new metagrid on record  1800.2 with target accuracy 1.0D-06 and 7646 points in CPU time    5.3
 Computed new grid on record 1800.1 in CPU time    5.3
 Grid points discarded due to weight cutoff:      25

 DFT orbital screening threshold (tolorb):   1.0D-11

 Basis set AWCV5Z/MP2FIT generated.      Number of basis functions:   455 
 Coulomb and exchange fitting
 Thresholds for fitting:       THRAO_COUL= 1.0D-17    THRAO_EXCH= 1.0D-15    THRMO= 1.0D-14    THRPROD= 1.0D-14    THRASM= 1.0D-14
                               THR2HLF=    1.0D-14

 Basis set AWCV5Z-MP2FIT loaded. Number of basis functions: 455
 
 Orbital guess generated from atomic densities. Full valence occupancy:    6
 Using density fitting in orbital guess
 

 Initial alpha occupancy:   5
 Initial beta  occupancy:   3

 Elapsed time for starting guess:     11.45 sec

 NELEC=    8   SYM=1   MS2=2   THRE=1.0D-11   THRD=1.0D-08   THRG=1.0D-08  HFMA2=F  DIIS_START=2   DIIS_MAX=10   DIIS_INCORE=F

 Initial level shifts:    0.20 (ALPHA)    0.20 (BETA)

 ITER         ETOT            DE          GRAD         DDIFF    DIIS  NEXP   TIME(IT)  TIME(TOT)  DIAG
   1    -55.17553665   -55.17553665     0.00D+00     0.00D+00     0     0      11.35     22.80    start
   2    -55.18234457    -0.00680792     0.36D-02     0.36D-01     1     0      11.73     34.53    diag
   3    -55.18300188    -0.00065731     0.94D-03     0.15D-02     2     0      10.72     45.25    diag
   4    -55.18311200    -0.00011012     0.42D-03     0.37D-03     3     0       9.48     54.73    diag
   5    -55.18313000    -0.00001801     0.14D-03     0.21D-03     4     0      11.15     65.88    diag
   6    -55.18313332    -0.00000332     0.63D-04     0.70D-04     5     0      11.00     76.88    diag
   7    -55.18313381    -0.00000049     0.17D-04     0.26D-04     6     0      11.68     88.56    diag
   8    -55.18313387    -0.00000006     0.55D-05     0.72D-05     6     0      11.63    100.19    diag
   9    -55.18313388    -0.00000001     0.19D-05     0.21D-05     6     0      11.60    111.79    diag
  10    -55.18313388    -0.00000000     0.66D-06     0.67D-06     6     0      11.75    123.54    diag/ort
  11    -55.18313388    -0.00000000     0.21D-06     0.23D-06     6     0      11.55    135.09    diag
  12    -55.18313388    -0.00000000     0.82D-07     0.91D-07     7     0      11.63    146.72    diag
  13    -55.18313388    -0.00000000     0.25D-07     0.38D-07     6     0      11.23    157.95    diag
  14    -55.18313388     0.00000000     0.84D-08     0.12D-07     6     0       9.79    167.74    diag
  15    -55.18313388    -0.00000000     0.27D-08     0.43D-08     6     0       9.32    177.06    diag

 Final alpha occupancy:   5
 Final beta  occupancy:   3
 
 !UKS STATE 1.1 Energy                -55.183133879829
  UKS One-electron energy             -81.632518692841
  UKS Two-electron energy              28.268018006203
  UKS Kinetic energy                   54.993008880761
  UKS Nuclear energy                    3.571412502527
  UKS Virial quotient                  -1.003457257621
 Density functional                    -5.39004570     PBEX=-6.88617004 PBEC=-0.22541817
 
 !UKS STATE 1.1 Dipole moment          -0.00000000    -0.00000000    -0.60212693
 Dipole moment /Debye                  -0.00000000    -0.00000000    -1.53045400

 EXPECTATION VALUE OF S**2:             2.00644328

 Orbital energies for positive spin:

           1.1          2.1          3.1          4.1          5.1          6.1          7.1
    -14.464064    -0.874747    -0.421342    -0.359158    -0.359158    -0.006023     0.068326

 Orbital energies for negative spin:

           1.1          2.1          3.1          4.1          5.1
    -14.422016    -0.748225    -0.374420    -0.095119    -0.095119


 HOMO      5.1    -0.359158 =      -9.7732eV
 LUMO     -4.1    -0.095119 =      -2.5883eV
 LUMO-HOMO         0.264039 =       7.1849eV

 Orbitals saved in record  2200.2

 Occupation number threshold for pseudo-canonical orbitals: 1.9990 (occupied), 0.0010 (virtual)

 Number of pseudo-canonical occupied orbitals per symmetry:    2
 Number of active natural orbitals per symmetry:               4

 Natural orbitals saved to record    2200.2 (Orbital set 3)

 Orbital spaces for UNO-CAS (Min. occupation: 0.020  Max. occupation: 1.980):

 Closed:        3
 Active:        2


 **********************************************************************************************************************************
 DATASETS  * FILE   NREC   LENGTH (MB)   RECORD NAMES
              1      19       29.68       500      610      700      900      950      970     1000      129      960     1100   
                                          VAR    BASINP    GEOM    SYMINP    ZMAT    AOBASIS   BASIS     P2S    ABASIS      S 
                                         1400     1410     1200     1210     1080     1600     1650     1700     1800   
                                           T        V       H0       H01     AOSYM     SMH    MOLCAS    OPER     GRID   

              2       5        1.32       700     1000      520     1800     2200   
                                         GEOM     BASIS   MCVARS    GRID      UKS  

              4       3        4.09      2900     3000     3100   

 PROGRAMS   *        TOTAL    DF-UKS       INT
 CPU TIMES  *       189.75    182.95      6.56
 REAL TIME  *        10.77 SEC
 DISK USED  *        38.43 MB
 **********************************************************************************************************************************

 Simple post-self-consistent spin-unrestricted dRPA
 with alpha and beta blocks of the same size
 (without MPI)
 
Read Orbital Records from 2200.2
Read Reference density from    0.0
Write Orbital Records to 2201.2
Write VxNL-VxL Records to    0.0
 Maximum number of iterations:                      0
 Minimum number of iterations:                      3
 Maximum size of DIIS matrix:                     10
Threshold for energy convergence:     1.000E-08
Threshold for Inversion convergence:     1.000E-08
Threshold for OEP calculation:     1.000E-06
 Threshold for RPA calculation:   1.000000000000000E-006
 Threshold for response matrix inversion in RPA:  1.000000000000000E-004
 Threshold for logarithmic function in RPA:  1.000000000000000E-006
 Another threshold for logarithmic function in RPA:  1.000000000000000E-010
 Threshold for inverse eigenvalue difference in RPA:  1.000000000000000E-008
 Threshold for eigenproblem solver:   1.000000000000000E-099
 Solver for eigenproblems: TIKH2
 Use density fitting.
 use direct RPA for correlation
 Quadrature points:                    50
 Use rational function in Gauss-Legendre quadrature.
 Scaling factor:    2.50000000000000     
 Molecular orbitals read from record     2200.2  Type=UKS/ALPHA  
 Orbital energies read from record       2200.2  Type=UKS/ALPHA  
 Density matrix read from record         2200.2  Type=UKS/CHARGE  
 Molecular orbitals read from record     2200.2  Type=UKS/BETA  
 Orbital energies read from record       2200.2  Type=UKS/BETA  
 Density matrix read from record         2200.2  Type=UKS/SPIN  
 Occupation numbers read from record     2200.2  Type=UKS/UKS  
 Occupation numbers read from record     2200.2  Type=UKS/UKS  
Number of nonsingular components:  301
naux_charge_ri:      301
 Sigma-values will be stored into sigma.dat

    ifreq    omega             dE/domega       Ecorr
     1      0.001418         -1.67458637     -0.00097010
     2      0.007482         -1.67422593     -0.00323513
     3      0.018442         -1.67233386     -0.00681079
     4      0.034386         -1.66677707     -0.01171147
     5      0.055439         -1.65457431     -0.01794192
     6      0.081769         -1.63224239     -0.02548471
     7      0.113588         -1.59647826     -0.03428807
     8      0.151158         -1.54503403     -0.04425818
     9      0.194793         -1.47736536     -0.05525913
    10      0.244867         -1.39468365     -0.06711968
    11      0.301818         -1.29949801     -0.07964363
    12      0.366160         -1.19506169     -0.09262101
    13      0.438493         -1.08497409     -0.10583981
    14      0.519512         -0.97289357     -0.11909761
    15      0.610027         -0.86226152     -0.13221214
    16      0.710977         -0.75603857     -0.14502916
    17      0.823456         -0.65651358     -0.15742665
    18      0.948736         -0.56522659     -0.16931543
    19      1.088308         -0.48300216     -0.18063678
    20      1.243915         -0.41005965     -0.19135822
    21      1.417610         -0.34616005     -0.20146848
    22      1.611818         -0.29075601     -0.21097248
    23      1.829414         -0.24312417     -0.21988705
    24      2.073834         -0.20246885     -0.22823756
    25      2.349198         -0.16799429     -0.23605584
    26      2.660482         -0.13894756     -0.24337918
    27      3.013741         -0.11463744     -0.25025007
    28      3.416394         -0.09443647     -0.25671654
    29      3.877610         -0.07777402     -0.26283245
    30      4.408827         -0.06412734     -0.26865743
    31      5.024457         -0.05301551     -0.27425639
    32      5.742859         -0.04399835     -0.27969843
    33      6.587709         -0.03667923     -0.28505546
    34      7.589965         -0.03070909     -0.29040056
    35      8.790716         -0.02578856     -0.29580610
    36     10.245443         -0.02166688     -0.30134077
    37     12.030510         -0.01813849     -0.30706471
    38     14.253364         -0.01504044     -0.31302116
    39     17.069035         -0.01225367     -0.31922415
    40     20.707869         -0.00970777     -0.32564327
    41     25.524089         -0.00738455     -0.33218925
    42     32.085267         -0.00531300     -0.33870573
    43     41.347333         -0.00355069     -0.34497316
    44     55.023205         -0.00215323     -0.35072474
    45     76.434846         -0.00114305     -0.35566236
    46    112.736462         -0.00049740     -0.35947113
    47    181.759690         -0.00015671     -0.36190666
    48    338.892100         -0.00002777     -0.36299754
    49    835.297317         -0.00000148     -0.36322056
    50   4408.244086         -0.00000000     -0.36322516

 reference energy =        -54.980954460704

 correlation energy =         -0.363225162309

 Total energy =        -55.344179623014


 **********************************************************************************************************************************
 DATASETS  * FILE   NREC   LENGTH (MB)   RECORD NAMES
              1      19       29.68       500      610      700      900      950      970     1000      129      960     1100   
                                          VAR    BASINP    GEOM    SYMINP    ZMAT    AOBASIS   BASIS     P2S    ABASIS      S 
                                         1400     1410     1200     1210     1080     1600     1650     1700     1800   
                                           T        V       H0       H01     AOSYM     SMH    MOLCAS    OPER     GRID   

              2       5        1.41       700     1000      520     1800     2200   
                                         GEOM     BASIS   MCVARS    GRID      UKS  

              4       1        1.61      4000   
                                         JMAT   

 PROGRAMS   *        TOTAL      USER    DF-UKS       INT
 CPU TIMES  *       258.15     68.28    182.95      6.56
 REAL TIME  *        13.99 SEC
 DISK USED  *        38.43 MB
 **********************************************************************************************************************************

 USER/aug-cc-pWCVQZ energy=    -55.344179623014

            USER          DF-UKS
    -55.34417962    -55.18313388
 **********************************************************************************************************************************
 Molpro calculation terminated
